LAMMPS data file. CGCMM style. atom_style full generated by VMD/TopoTools v1.7
 1500 atoms
 1000 bonds
 500 angles
 0 dihedrals
 0 impropers
 5 atom types
 3 bond types
 2 angle types
 0 dihedral types
 0 improper types
 -1.499499 31.500501  xlo xhi
 -1.494000 31.506000  ylo yhi
 -1.498000 31.502000  zlo zhi

# Pair Coeffs
#
# 1  C3
# 2  H
# 3  Hw
# 4  O
# 5  Ow

# Bond Coeffs
#
# 1  C3-O
# 2  H-O
# 3  Hw-Ow

# Angle Coeffs
#
# 1  C3-O-H
# 2  Hw-Ow-Hw

 Masses

 1 15.035000 # C3
 2 1.007940 # H
 3 1.008000 # Hw
 4 15.999400 # O
 5 15.999000 # Ow

 Atoms # full

1 1 5 0.000000 6.217000 12.803000 3.221000 # Ow LIG
2 2 3 0.000000 7.201000 12.864000 3.389000 # Hw LIG
3 3 3 0.000000 5.859000 13.712000 3.007000 # Hw LIG
4 1 5 0.000000 18.816000 0.552000 9.113000 # Ow LIG
5 2 3 0.000000 17.987000 -0.001000 9.189000 # Hw LIG
6 3 3 0.000000 19.584999 0.059000 9.520000 # Hw LIG
7 1 5 0.000000 16.568001 2.435000 18.615999 # Ow LIG
8 2 3 0.000000 17.362000 2.802000 18.132999 # Hw LIG
9 3 3 0.000000 16.330000 1.541000 18.235001 # Hw LIG
10 1 5 0.000000 19.987000 4.158000 20.010000 # Ow LIG
11 2 3 0.000000 19.461000 3.890000 20.816999 # Hw LIG
12 3 3 0.000000 20.754999 4.734000 20.288000 # Hw LIG
13 1 5 0.000000 10.220000 0.002000 1.855000 # Ow LIG
14 2 3 0.000000 9.330000 -0.001000 2.310000 # Hw LIG
15 3 3 0.000000 10.088000 -0.001000 0.864000 # Hw LIG
16 1 5 0.000000 15.196000 13.620000 3.651000 # Ow LIG
17 2 3 0.000000 14.317000 13.354000 4.046000 # Hw LIG
18 3 3 0.000000 15.674000 12.805000 3.324000 # Hw LIG
19 1 5 0.000000 26.546000 9.661000 9.628000 # Ow LIG
20 2 3 0.000000 26.540001 10.468000 10.218000 # Hw LIG
21 3 3 0.000000 26.716000 9.940000 8.683000 # Hw LIG
22 1 5 0.000000 20.063000 0.883000 16.466000 # Ow LIG
23 2 3 0.000000 20.523001 -0.000000 16.563000 # Hw LIG
24 3 3 0.000000 20.524000 1.563000 17.035999 # Hw LIG
25 1 5 0.000000 29.945000 14.138000 18.240000 # Ow LIG
26 2 3 0.000000 30.002001 14.534000 19.157000 # Hw LIG
27 3 3 0.000000 29.364000 13.325000 18.263000 # Hw LIG
28 1 5 0.000000 3.718000 28.753000 22.919001 # Ow LIG
29 2 3 0.000000 4.407000 28.242001 22.403999 # Hw LIG
30 3 3 0.000000 2.893000 28.197001 23.013000 # Hw LIG
31 1 5 0.000000 6.593000 16.224001 18.648001 # Ow LIG
32 2 3 0.000000 5.789000 16.773001 18.875999 # Hw LIG
33 3 3 0.000000 6.947000 16.506001 17.756001 # Hw LIG
34 1 5 0.000000 29.958000 2.377000 9.835000 # Ow LIG
35 2 3 0.000000 30.003000 3.368000 9.962000 # Hw LIG
36 3 3 0.000000 29.983999 1.925000 10.726000 # Hw LIG
37 1 5 0.000000 29.434999 7.524000 0.001000 # Ow LIG
38 2 3 0.000000 28.541000 7.546000 0.449000 # Hw LIG
39 3 3 0.000000 30.000000 6.814000 0.419000 # Hw LIG
40 1 5 0.000000 25.229000 0.777000 29.424000 # Ow LIG
41 2 3 0.000000 24.976000 0.000000 30.000999 # Hw LIG
42 3 3 0.000000 25.496000 1.548000 30.000999 # Hw LIG
43 1 5 0.000000 0.428000 14.769000 22.341000 # Ow LIG
44 2 3 0.000000 -0.000000 15.381000 21.676001 # Hw LIG
45 3 3 0.000000 -0.002000 14.895000 23.235001 # Hw LIG
46 1 5 0.000000 26.709999 30.004000 2.486000 # Ow LIG
47 2 3 0.000000 26.479000 29.952999 3.457000 # Hw LIG
48 3 3 0.000000 26.114000 29.389999 1.969000 # Hw LIG
49 1 5 0.000000 7.461000 4.881000 6.907000 # Ow LIG
50 2 3 0.000000 7.236000 3.999000 6.493000 # Hw LIG
51 3 3 0.000000 7.931000 5.454000 6.235000 # Hw LIG
52 1 5 0.000000 14.198000 25.510000 0.006000 # Ow LIG
53 2 3 0.000000 14.718000 24.655001 0.014000 # Hw LIG
54 3 3 0.000000 14.831000 26.284000 -0.000000 # Hw LIG
55 1 5 0.000000 3.570000 5.493000 11.835000 # Ow LIG
56 2 3 0.000000 3.800000 5.614000 10.870000 # Hw LIG
57 3 3 0.000000 3.727000 6.351000 12.325000 # Hw LIG
58 1 5 0.000000 7.236000 29.537001 5.522000 # Ow LIG
59 2 3 0.000000 7.379000 28.549000 5.467000 # Hw LIG
60 3 3 0.000000 8.121000 30.000000 5.574000 # Hw LIG
61 1 5 0.000000 29.694000 26.261999 16.985001 # Ow LIG
62 2 3 0.000000 29.974001 25.688000 16.215000 # Hw LIG
63 3 3 0.000000 28.830999 25.921000 17.358000 # Hw LIG
64 1 5 0.000000 10.171000 17.844999 14.955000 # Ow LIG
65 2 3 0.000000 9.916000 17.025000 15.467000 # Hw LIG
66 3 3 0.000000 10.218000 17.629000 13.980000 # Hw LIG
67 1 5 0.000000 12.245000 20.648001 15.264000 # Ow LIG
68 2 3 0.000000 12.748000 20.332001 14.460000 # Hw LIG
69 3 3 0.000000 11.447000 21.174999 14.972000 # Hw LIG
70 1 5 0.000000 30.004000 6.467000 8.032000 # Ow LIG
71 2 3 0.000000 29.879000 6.727000 8.989000 # Hw LIG
72 3 3 0.000000 29.993000 7.286000 7.459000 # Hw LIG
73 1 5 0.000000 8.273000 21.205999 29.424999 # Ow LIG
74 2 3 0.000000 8.391000 22.014999 30.000999 # Hw LIG
75 3 3 0.000000 8.236000 20.389000 30.000999 # Hw LIG
76 1 5 0.000000 3.482000 27.752001 5.625000 # Ow LIG
77 2 3 0.000000 3.889000 28.563000 5.204000 # Hw LIG
78 3 3 0.000000 4.207000 27.166000 5.987000 # Hw LIG
79 1 5 0.000000 0.088000 0.537000 28.601000 # Ow LIG
80 2 3 0.000000 0.662000 0.000000 27.983000 # Hw LIG
81 3 3 0.000000 0.000000 0.059000 29.475000 # Hw LIG
82 1 5 0.000000 16.299000 1.742000 30.004999 # Ow LIG
83 2 3 0.000000 16.799999 0.920000 29.735001 # Hw LIG
84 3 3 0.000000 16.100000 2.292000 29.194000 # Hw LIG
85 1 5 0.000000 29.752001 16.962000 0.564000 # Ow LIG
86 2 3 0.000000 29.011999 17.327000 -0.001000 # Hw LIG
87 3 3 0.000000 30.000999 17.635000 1.262000 # Hw LIG
88 1 5 0.000000 30.007999 10.116000 9.857000 # Ow LIG
89 2 3 0.000000 29.976999 11.115000 9.846000 # Hw LIG
90 3 3 0.000000 29.924000 9.790000 10.798000 # Hw LIG
91 1 5 0.000000 0.116000 23.309999 30.002001 # Ow LIG
92 2 3 0.000000 -0.013000 24.302000 30.003000 # Hw LIG
93 3 3 0.000000 1.094000 23.101000 30.000000 # Hw LIG
94 1 5 0.000000 26.427000 13.715000 26.098000 # Ow LIG
95 2 3 0.000000 26.353001 12.718000 26.108000 # Hw LIG
96 3 3 0.000000 25.531000 14.113000 25.902000 # Hw LIG
97 1 5 0.000000 27.181000 13.991000 0.015000 # Ow LIG
98 2 3 0.000000 26.353001 13.430000 -0.003000 # Hw LIG
99 3 3 0.000000 27.263000 14.435000 0.907000 # Hw LIG
100 1 5 0.000000 18.875000 13.550000 29.500000 # Ow LIG
101 2 3 0.000000 17.986000 13.584000 29.044001 # Hw LIG
102 3 3 0.000000 19.562000 13.992000 28.923000 # Hw LIG
103 1 5 0.000000 6.913000 12.221000 12.108000 # Ow LIG
104 2 3 0.000000 6.256000 11.972000 12.820000 # Hw LIG
105 3 3 0.000000 6.422000 12.504000 11.285000 # Hw LIG
106 1 5 0.000000 29.565001 11.354000 5.733000 # Ow LIG
107 2 3 0.000000 30.000000 11.309000 4.834000 # Hw LIG
108 3 3 0.000000 29.990999 10.687000 6.344000 # Hw LIG
109 1 5 0.000000 13.766000 11.360000 20.500999 # Ow LIG
110 2 3 0.000000 13.021000 10.811000 20.879000 # Hw LIG
111 3 3 0.000000 14.143000 10.900000 19.695999 # Hw LIG
112 1 5 0.000000 23.961000 17.379000 10.888000 # Ow LIG
113 2 3 0.000000 23.667000 17.721001 9.995000 # Hw LIG
114 3 3 0.000000 24.951000 17.233000 10.879000 # Hw LIG
115 1 5 0.000000 27.461000 3.679000 0.373000 # Ow LIG
116 2 3 0.000000 28.388000 3.736000 -0.000000 # Hw LIG
117 3 3 0.000000 26.927999 4.465000 0.060000 # Hw LIG
118 1 5 0.000000 26.299999 23.327000 28.971001 # Ow LIG
119 2 3 0.000000 26.618000 23.275000 29.917999 # Hw LIG
120 3 3 0.000000 26.952000 23.857000 28.429001 # Hw LIG
121 1 5 0.000000 25.497000 19.333000 6.091000 # Ow LIG
122 2 3 0.000000 25.990000 20.170000 5.854000 # Hw LIG
123 3 3 0.000000 24.624001 19.570000 6.517000 # Hw LIG
124 1 5 0.000000 18.040001 7.228000 25.681999 # Ow LIG
125 2 3 0.000000 18.204000 8.103000 25.225000 # Hw LIG
126 3 3 0.000000 18.600000 7.175000 26.509001 # Hw LIG
127 1 5 0.000000 22.007000 29.535000 3.463000 # Ow LIG
128 2 3 0.000000 21.731001 28.608999 3.208000 # Hw LIG
129 3 3 0.000000 23.000999 29.573000 3.558000 # Hw LIG
130 1 5 0.000000 29.916000 29.829000 14.029000 # Ow LIG
131 2 3 0.000000 30.000000 28.856001 14.241000 # Hw LIG
132 3 3 0.000000 30.000000 29.964001 13.041000 # Hw LIG
133 1 5 0.000000 0.949000 3.887000 20.688999 # Ow LIG
134 2 3 0.000000 -0.000000 4.174000 20.556000 # Hw LIG
135 3 3 0.000000 1.005000 3.278000 21.480000 # Hw LIG
136 1 5 0.000000 26.846001 3.489000 26.624001 # Ow LIG
137 2 3 0.000000 27.125000 4.350000 27.049999 # Hw LIG
138 3 3 0.000000 27.535999 2.789000 26.805000 # Hw LIG
139 1 5 0.000000 11.750000 23.389999 11.801000 # Ow LIG
140 2 3 0.000000 11.641000 24.197001 11.222000 # Hw LIG
141 3 3 0.000000 12.670000 23.016001 11.681000 # Hw LIG
142 1 5 0.000000 19.976999 10.719000 7.817000 # Ow LIG
143 2 3 0.000000 20.205999 9.851000 7.377000 # Hw LIG
144 3 3 0.000000 19.664000 10.547000 8.751000 # Hw LIG
145 1 5 0.000000 3.355000 18.770000 17.347000 # Ow LIG
146 2 3 0.000000 3.167000 19.128000 18.261000 # Hw LIG
147 3 3 0.000000 2.540000 18.868000 16.775999 # Hw LIG
148 1 5 0.000000 8.706000 3.088000 19.783001 # Ow LIG
149 2 3 0.000000 8.304000 2.832000 20.662001 # Hw LIG
150 3 3 0.000000 8.354000 2.485000 19.068001 # Hw LIG
151 1 5 0.000000 26.632999 2.684000 17.617001 # Ow LIG
152 2 3 0.000000 27.518000 3.015000 17.288000 # Hw LIG
153 3 3 0.000000 26.778000 1.971000 18.302999 # Hw LIG
154 1 5 0.000000 3.939000 19.650000 3.207000 # Ow LIG
155 2 3 0.000000 4.836000 19.292000 3.464000 # Hw LIG
156 3 3 0.000000 3.884000 20.618999 3.449000 # Hw LIG
157 1 5 0.000000 29.997999 4.055000 20.520000 # Ow LIG
158 2 3 0.000000 30.000999 3.463000 19.714001 # Hw LIG
159 3 3 0.000000 30.000999 3.492000 21.347000 # Hw LIG
160 1 5 0.000000 17.934000 7.501000 13.120000 # Ow LIG
161 2 3 0.000000 16.950001 7.566000 13.286000 # Hw LIG
162 3 3 0.000000 18.254999 6.588000 13.373000 # Hw LIG
163 1 5 0.000000 6.376000 19.280001 14.351000 # Ow LIG
164 2 3 0.000000 6.418000 18.379000 14.783000 # Hw LIG
165 3 3 0.000000 7.240000 19.466000 13.883000 # Hw LIG
166 1 5 0.000000 10.627000 3.919000 8.166000 # Ow LIG
167 2 3 0.000000 11.229000 4.288000 8.874000 # Hw LIG
168 3 3 0.000000 11.005000 4.129000 7.264000 # Hw LIG
169 1 5 0.000000 23.326000 11.076000 8.972000 # Ow LIG
170 2 3 0.000000 23.096001 10.168000 9.325000 # Hw LIG
171 3 3 0.000000 22.853001 11.772000 9.511000 # Hw LIG
172 1 5 0.000000 17.469000 21.320999 26.000999 # Ow LIG
173 2 3 0.000000 17.596001 20.400999 25.629999 # Hw LIG
174 3 3 0.000000 18.181999 21.509001 26.677999 # Hw LIG
175 1 5 0.000000 29.941999 10.973000 0.313000 # Ow LIG
176 2 3 0.000000 28.993000 10.996000 -0.001000 # Hw LIG
177 3 3 0.000000 30.000999 11.374000 1.228000 # Hw LIG
178 1 5 0.000000 26.537001 17.207001 2.917000 # Ow LIG
179 2 3 0.000000 25.625999 16.792999 2.910000 # Hw LIG
180 3 3 0.000000 26.451000 18.202999 2.918000 # Hw LIG
181 1 5 0.000000 2.631000 15.290000 29.980000 # Ow LIG
182 2 3 0.000000 3.534000 14.881000 29.844999 # Hw LIG
183 3 3 0.000000 2.716000 16.285999 30.006001 # Hw LIG
184 1 5 0.000000 27.283001 12.025000 29.878000 # Ow LIG
185 2 3 0.000000 26.486000 11.423000 29.927999 # Hw LIG
186 3 3 0.000000 26.992001 12.974000 30.000000 # Hw LIG
187 1 5 0.000000 29.365999 23.521000 13.535000 # Ow LIG
188 2 3 0.000000 30.000000 22.917999 14.018000 # Hw LIG
189 3 3 0.000000 29.882999 24.180000 12.989000 # Hw LIG
190 1 5 0.000000 -0.000000 26.240999 10.721000 # Ow LIG
191 2 3 0.000000 0.002000 25.264000 10.508000 # Hw LIG
192 3 3 0.000000 0.551000 26.406000 11.539000 # Hw LIG
193 1 5 0.000000 15.703000 3.660000 14.240000 # Ow LIG
194 2 3 0.000000 15.828000 3.016000 14.994000 # Hw LIG
195 3 3 0.000000 15.656000 4.591000 14.600000 # Hw LIG
196 1 5 0.000000 12.375000 29.650999 -0.001000 # Ow LIG
197 2 3 0.000000 12.268000 28.664000 0.121000 # Hw LIG
198 3 3 0.000000 13.031000 30.000000 0.669000 # Hw LIG
199 1 5 0.000000 20.914000 19.329000 20.296000 # Ow LIG
200 2 3 0.000000 21.118000 19.492001 19.330999 # Hw LIG
201 3 3 0.000000 20.500000 20.149000 20.691999 # Hw LIG
202 1 5 0.000000 0.982000 0.131000 18.361000 # Ow LIG
203 2 3 0.000000 -0.001000 -0.001000 18.485001 # Hw LIG
204 3 3 0.000000 1.300000 0.863000 18.964001 # Hw LIG
205 1 5 0.000000 29.603001 13.682000 22.528000 # Ow LIG
206 2 3 0.000000 28.607000 13.702000 22.441999 # Hw LIG
207 3 3 0.000000 29.914000 12.733000 22.573000 # Hw LIG
208 1 5 0.000000 25.775999 6.626000 8.062000 # Ow LIG
209 2 3 0.000000 26.547001 6.316000 7.506000 # Hw LIG
210 3 3 0.000000 25.103001 7.077000 7.476000 # Hw LIG
211 1 5 0.000000 11.223000 29.848000 7.191000 # Ow LIG
212 2 3 0.000000 12.166000 29.996000 7.491000 # Hw LIG
213 3 3 0.000000 11.037000 28.865999 7.150000 # Hw LIG
214 1 5 0.000000 2.427000 22.902000 11.641000 # Ow LIG
215 2 3 0.000000 3.025000 22.113001 11.501000 # Hw LIG
216 3 3 0.000000 2.983000 23.726999 11.746000 # Hw LIG
217 1 5 0.000000 9.752000 17.664000 7.864000 # Ow LIG
218 2 3 0.000000 9.308000 17.597000 8.757000 # Hw LIG
219 3 3 0.000000 10.644000 18.103001 7.968000 # Hw LIG
220 1 5 0.000000 25.284000 22.886999 24.412001 # Ow LIG
221 2 3 0.000000 24.364000 23.277000 24.378000 # Hw LIG
222 3 3 0.000000 25.597000 22.855000 25.361000 # Hw LIG
223 1 5 0.000000 16.138000 28.868999 29.698999 # Ow LIG
224 2 3 0.000000 16.820999 29.533001 30.003000 # Hw LIG
225 3 3 0.000000 15.911000 29.040001 28.740000 # Hw LIG
226 1 5 0.000000 26.537001 3.262000 10.437000 # Ow LIG
227 2 3 0.000000 26.542000 3.377000 9.443000 # Hw LIG
228 3 3 0.000000 25.987000 3.985000 10.853000 # Hw LIG
229 1 5 0.000000 20.068001 3.998000 26.506001 # Ow LIG
230 2 3 0.000000 19.357000 3.295000 26.503000 # Hw LIG
231 3 3 0.000000 20.968000 3.561000 26.507000 # Hw LIG
232 1 5 0.000000 11.841000 23.438999 19.679001 # Ow LIG
233 2 3 0.000000 10.996000 23.597000 19.169001 # Hw LIG
234 3 3 0.000000 11.818000 23.958000 20.533001 # Hw LIG
235 1 5 0.000000 7.798000 20.047001 6.206000 # Ow LIG
236 2 3 0.000000 6.832000 20.301001 6.156000 # Hw LIG
237 3 3 0.000000 8.334000 20.834000 6.512000 # Hw LIG
238 1 5 0.000000 30.003000 4.740000 4.272000 # Ow LIG
239 2 3 0.000000 29.302000 4.937000 4.959000 # Hw LIG
240 3 3 0.000000 29.646999 4.954000 3.362000 # Hw LIG
241 1 5 0.000000 0.456000 3.288000 12.026000 # Ow LIG
242 2 3 0.000000 0.031000 3.823000 12.755000 # Hw LIG
243 3 3 0.000000 0.016000 3.503000 11.154000 # Hw LIG
244 1 5 0.000000 4.597000 7.363000 6.756000 # Ow LIG
245 2 3 0.000000 4.480000 6.701000 7.496000 # Hw LIG
246 3 3 0.000000 4.752000 6.878000 5.895000 # Hw LIG
247 1 5 0.000000 28.340000 29.420000 17.704000 # Ow LIG
248 2 3 0.000000 29.115999 29.988001 17.431999 # Hw LIG
249 3 3 0.000000 27.549000 30.003000 17.891001 # Hw LIG
250 1 5 0.000000 22.416000 5.702000 4.198000 # Ow LIG
251 2 3 0.000000 22.799999 6.135000 5.014000 # Hw LIG
252 3 3 0.000000 23.135000 5.586000 3.513000 # Hw LIG
253 1 5 0.000000 18.454000 0.448000 20.792999 # Ow LIG
254 2 3 0.000000 19.139000 0.487000 20.065001 # Hw LIG
255 3 3 0.000000 18.846001 -0.002000 21.594999 # Hw LIG
256 1 5 0.000000 25.841999 20.937000 10.116000 # Ow LIG
257 2 3 0.000000 25.261999 21.747999 10.047000 # Hw LIG
258 3 3 0.000000 26.372000 20.833000 9.274000 # Hw LIG
259 1 5 0.000000 1.065000 7.113000 18.982000 # Ow LIG
260 2 3 0.000000 1.831000 7.590000 18.551001 # Hw LIG
261 3 3 0.000000 0.538000 7.758000 19.535000 # Hw LIG
262 1 5 0.000000 29.875999 8.257000 22.749001 # Ow LIG
263 2 3 0.000000 30.000000 9.234000 22.573000 # Hw LIG
264 3 3 0.000000 30.000999 7.747000 21.898001 # Hw LIG
265 1 5 0.000000 27.386000 0.680000 12.962000 # Ow LIG
266 2 3 0.000000 26.500999 0.214000 12.934000 # Hw LIG
267 3 3 0.000000 28.118999 0.000000 12.979000 # Hw LIG
268 1 5 0.000000 17.113001 0.718000 3.468000 # Ow LIG
269 2 3 0.000000 17.593000 -0.002000 2.967000 # Hw LIG
270 3 3 0.000000 16.341999 0.320000 3.965000 # Hw LIG
271 1 5 0.000000 11.201000 0.654000 20.106001 # Ow LIG
272 2 3 0.000000 10.476000 -0.001000 20.319000 # Hw LIG
273 3 3 0.000000 11.975000 0.171000 19.695000 # Hw LIG
274 1 5 0.000000 13.446000 7.046000 2.297000 # Ow LIG
275 2 3 0.000000 14.011000 7.679000 2.827000 # Hw LIG
276 3 3 0.000000 13.927000 6.794000 1.457000 # Hw LIG
277 1 5 0.000000 15.680000 14.839000 19.010000 # Ow LIG
278 2 3 0.000000 14.714000 14.766000 19.257999 # Hw LIG
279 3 3 0.000000 16.077000 13.924000 18.945000 # Hw LIG
280 1 5 0.000000 24.046000 24.327000 16.104000 # Ow LIG
281 2 3 0.000000 23.452000 23.620001 15.720000 # Hw LIG
282 3 3 0.000000 24.872000 23.903000 16.474001 # Hw LIG
283 1 5 0.000000 8.542000 26.584999 11.645000 # Ow LIG
284 2 3 0.000000 7.746000 27.131001 11.907000 # Hw LIG
285 3 3 0.000000 9.161000 27.142000 11.091000 # Hw LIG
286 1 5 0.000000 19.934000 29.992001 27.261999 # Ow LIG
287 2 3 0.000000 20.259001 29.046000 27.261000 # Hw LIG
288 3 3 0.000000 18.934000 30.000999 27.253000 # Hw LIG
289 1 5 0.000000 22.294001 0.574000 12.138000 # Ow LIG
290 2 3 0.000000 21.528999 0.000000 12.430000 # Hw LIG
291 3 3 0.000000 23.091999 -0.001000 11.958000 # Hw LIG
292 1 5 0.000000 14.845000 19.552999 9.572000 # Ow LIG
293 2 3 0.000000 14.465000 20.455999 9.773000 # Hw LIG
294 3 3 0.000000 15.813000 19.643000 9.339000 # Hw LIG
295 1 5 0.000000 28.982000 14.893000 11.901000 # Ow LIG
296 2 3 0.000000 29.676001 15.608000 11.995000 # Hw LIG
297 3 3 0.000000 29.429001 14.016000 11.725000 # Hw LIG
298 1 5 0.000000 24.732000 12.600000 18.164000 # Ow LIG
299 2 3 0.000000 23.823000 13.016000 18.198000 # Hw LIG
300 3 3 0.000000 25.181999 12.852000 17.306999 # Hw LIG
301 1 5 0.000000 16.009001 11.224000 15.961000 # Ow LIG
302 2 3 0.000000 16.153000 10.532000 15.254000 # Hw LIG
303 3 3 0.000000 16.365999 10.888000 16.833000 # Hw LIG
304 1 5 0.000000 4.210000 21.143000 25.201000 # Ow LIG
305 2 3 0.000000 5.012000 20.893999 24.657000 # Hw LIG
306 3 3 0.000000 4.419000 21.952000 25.750999 # Hw LIG
307 1 5 0.000000 0.149000 6.629000 4.521000 # Ow LIG
308 2 3 0.000000 -0.001000 6.943000 3.583000 # Hw LIG
309 3 3 0.000000 -0.009000 5.643000 4.571000 # Hw LIG
310 1 5 0.000000 2.378000 15.715000 18.976000 # Ow LIG
311 2 3 0.000000 2.357000 14.716000 18.993999 # Hw LIG
312 3 3 0.000000 1.519000 16.059999 18.597000 # Hw LIG
313 1 5 0.000000 29.466999 21.589001 23.621000 # Ow LIG
314 2 3 0.000000 28.627001 22.122000 23.718000 # Hw LIG
315 3 3 0.000000 30.002001 21.652000 24.462999 # Hw LIG
316 1 5 0.000000 3.985000 23.134001 17.535000 # Ow LIG
317 2 3 0.000000 4.500000 23.811001 17.010000 # Hw LIG
318 3 3 0.000000 3.763000 23.510000 18.434999 # Hw LIG
319 1 5 0.000000 19.929001 5.664000 0.519000 # Ow LIG
320 2 3 0.000000 20.231001 6.461000 -0.004000 # Hw LIG
321 3 3 0.000000 19.230000 5.171000 0.001000 # Hw LIG
322 1 5 0.000000 21.805000 2.763000 9.451000 # Ow LIG
323 2 3 0.000000 22.658001 3.152000 9.800000 # Hw LIG
324 3 3 0.000000 21.260000 3.485000 9.023000 # Hw LIG
325 1 5 0.000000 27.483999 21.493000 17.266001 # Ow LIG
326 2 3 0.000000 28.159000 20.783001 17.466000 # Hw LIG
327 3 3 0.000000 27.955000 22.349001 17.052000 # Hw LIG
328 1 5 0.000000 4.188000 15.674000 8.725000 # Ow LIG
329 2 3 0.000000 3.271000 16.017000 8.526000 # Hw LIG
330 3 3 0.000000 4.211000 14.683000 8.588000 # Hw LIG
331 1 5 0.000000 14.143000 17.167000 30.002001 # Ow LIG
332 2 3 0.000000 14.325000 17.792999 29.243999 # Hw LIG
333 3 3 0.000000 13.197000 16.848000 29.952000 # Hw LIG
334 1 5 0.000000 23.518999 22.752001 21.021999 # Ow LIG
335 2 3 0.000000 22.597000 23.073999 21.238001 # Hw LIG
336 3 3 0.000000 23.547001 22.429001 20.077000 # Hw LIG
337 1 5 0.000000 25.511000 0.064000 -0.020000 # Ow LIG
338 2 3 0.000000 24.622999 0.524000 0.013000 # Hw LIG
339 3 3 0.000000 25.886000 -0.003000 0.904000 # Hw LIG
340 1 5 0.000000 7.073000 24.849001 21.038000 # Ow LIG
341 2 3 0.000000 6.988000 25.620001 21.670000 # Hw LIG
342 3 3 0.000000 8.000000 24.826000 20.663000 # Hw LIG
343 1 5 0.000000 9.069000 24.945999 4.904000 # Ow LIG
344 2 3 0.000000 9.018000 23.969999 5.115000 # Hw LIG
345 3 3 0.000000 8.310000 25.197001 4.303000 # Hw LIG
346 1 5 0.000000 17.458000 22.910000 18.260000 # Ow LIG
347 2 3 0.000000 17.771000 21.966999 18.153000 # Hw LIG
348 3 3 0.000000 17.586000 23.198000 19.209000 # Hw LIG
349 1 5 0.000000 18.131001 12.028000 11.734000 # Ow LIG
350 2 3 0.000000 17.811001 11.195000 12.183000 # Hw LIG
351 3 3 0.000000 17.537001 12.238000 10.957000 # Hw LIG
352 1 5 0.000000 8.824000 8.749000 26.136999 # Ow LIG
353 2 3 0.000000 9.697000 8.428000 26.504000 # Hw LIG
354 3 3 0.000000 8.135000 8.743000 26.862000 # Hw LIG
355 1 5 0.000000 22.304001 27.136000 23.037001 # Ow LIG
356 2 3 0.000000 21.497000 26.593000 23.268999 # Hw LIG
357 3 3 0.000000 23.073999 26.525000 22.851999 # Hw LIG
358 1 5 0.000000 4.958000 21.829000 21.285000 # Ow LIG
359 2 3 0.000000 4.428000 21.087999 20.872000 # Hw LIG
360 3 3 0.000000 5.919000 21.559000 21.343000 # Hw LIG
361 1 5 0.000000 23.489000 16.059999 14.735000 # Ow LIG
362 2 3 0.000000 23.018999 15.181000 14.667000 # Hw LIG
363 3 3 0.000000 24.409000 15.919000 15.101000 # Hw LIG
364 1 5 0.000000 14.071000 17.966999 25.334000 # Ow LIG
365 2 3 0.000000 14.479000 17.879000 24.426001 # Hw LIG
366 3 3 0.000000 14.573000 18.653999 25.861000 # Hw LIG
367 1 5 0.000000 25.158001 26.056999 3.406000 # Ow LIG
368 2 3 0.000000 24.586000 26.311001 2.626000 # Hw LIG
369 3 3 0.000000 25.131001 26.785999 4.090000 # Hw LIG
370 1 5 0.000000 14.690000 13.052000 12.822000 # Ow LIG
371 2 3 0.000000 14.817000 13.993000 12.507000 # Hw LIG
372 3 3 0.000000 13.722000 12.894000 13.016000 # Hw LIG
373 1 5 0.000000 9.639000 7.672000 8.336000 # Ow LIG
374 2 3 0.000000 9.316000 7.205000 9.159000 # Hw LIG
375 3 3 0.000000 8.940000 8.314000 8.022000 # Hw LIG
376 1 5 0.000000 9.758000 9.499000 29.889000 # Ow LIG
377 2 3 0.000000 10.664000 9.907000 30.003000 # Hw LIG
378 3 3 0.000000 9.064000 10.219000 29.896999 # Hw LIG
379 1 5 0.000000 -0.002000 11.419000 23.638000 # Ow LIG
380 2 3 0.000000 0.092000 11.299000 22.650000 # Hw LIG
381 3 3 0.000000 0.854000 11.163000 24.087999 # Hw LIG
382 1 5 0.000000 3.957000 26.671000 14.847000 # Ow LIG
383 2 3 0.000000 4.949000 26.549000 14.845000 # Hw LIG
384 3 3 0.000000 3.603000 26.546000 13.920000 # Hw LIG
385 1 5 0.000000 7.384000 10.250000 21.443001 # Ow LIG
386 2 3 0.000000 8.217000 10.415000 20.914000 # Hw LIG
387 3 3 0.000000 7.484000 9.403000 21.966000 # Hw LIG
388 1 5 0.000000 23.679001 22.438999 3.774000 # Ow LIG
389 2 3 0.000000 23.360001 22.287001 4.710000 # Hw LIG
390 3 3 0.000000 23.955999 21.566000 3.371000 # Hw LIG
391 1 5 0.000000 5.039000 26.797001 18.875000 # Ow LIG
392 2 3 0.000000 5.482000 27.659000 19.122999 # Hw LIG
393 3 3 0.000000 4.159000 26.987000 18.441000 # Hw LIG
394 1 5 0.000000 15.640000 29.066000 21.577000 # Ow LIG
395 2 3 0.000000 15.306000 28.562000 22.372999 # Hw LIG
396 3 3 0.000000 15.651000 28.462000 20.780001 # Hw LIG
397 1 5 0.000000 0.784000 30.007000 25.145000 # Ow LIG
398 2 3 0.000000 0.472000 29.964001 26.094000 # Hw LIG
399 3 3 0.000000 -0.001000 29.919001 24.531000 # Hw LIG
400 1 5 0.000000 26.438000 8.811000 23.097000 # Ow LIG
401 2 3 0.000000 25.544001 9.026000 22.704000 # Hw LIG
402 3 3 0.000000 26.701000 9.530000 23.740000 # Hw LIG
403 1 5 0.000000 6.771000 17.257000 29.457001 # Ow LIG
404 2 3 0.000000 6.705000 16.268000 29.327000 # Hw LIG
405 3 3 0.000000 5.994000 17.573999 30.000999 # Hw LIG
406 1 5 0.000000 10.417000 24.774000 -0.001000 # Ow LIG
407 2 3 0.000000 9.726000 24.209000 0.450000 # Hw LIG
408 3 3 0.000000 10.356000 25.712000 0.343000 # Hw LIG
409 1 5 0.000000 14.433000 21.902000 30.002001 # Ow LIG
410 2 3 0.000000 13.566000 22.204000 29.606001 # Hw LIG
411 3 3 0.000000 14.870000 21.247999 29.386000 # Hw LIG
412 1 5 0.000000 20.726000 3.163000 13.895000 # Ow LIG
413 2 3 0.000000 21.551001 3.657000 13.620000 # Hw LIG
414 3 3 0.000000 20.105000 3.789000 14.368000 # Hw LIG
415 1 5 0.000000 3.336000 9.480000 15.375000 # Ow LIG
416 2 3 0.000000 2.570000 10.028000 15.039000 # Hw LIG
417 3 3 0.000000 4.186000 9.806000 14.961000 # Hw LIG
418 1 5 0.000000 19.646999 17.455000 22.968000 # Ow LIG
419 2 3 0.000000 20.591000 17.537001 23.285999 # Hw LIG
420 3 3 0.000000 19.094000 18.181999 23.375000 # Hw LIG
421 1 5 0.000000 4.474000 5.716000 22.000999 # Ow LIG
422 2 3 0.000000 5.440000 5.690000 21.743000 # Hw LIG
423 3 3 0.000000 4.114000 4.784000 22.038000 # Hw LIG
424 1 5 0.000000 5.973000 9.125000 10.410000 # Ow LIG
425 2 3 0.000000 5.134000 9.241000 10.942000 # Hw LIG
426 3 3 0.000000 6.120000 8.154000 10.226000 # Hw LIG
427 1 5 0.000000 2.913000 10.437000 30.010000 # Ow LIG
428 2 3 0.000000 2.944000 11.432000 29.916000 # Hw LIG
429 3 3 0.000000 3.844000 10.073000 30.002001 # Hw LIG
430 1 5 0.000000 10.850000 13.738000 4.658000 # Ow LIG
431 2 3 0.000000 10.876000 14.644000 5.081000 # Hw LIG
432 3 3 0.000000 10.870000 13.834000 3.663000 # Hw LIG
433 1 5 0.000000 20.164000 26.392000 15.390000 # Ow LIG
434 2 3 0.000000 19.781000 25.469000 15.382000 # Hw LIG
435 3 3 0.000000 19.422001 27.061001 15.435000 # Hw LIG
436 1 5 0.000000 0.805000 24.399000 7.006000 # Ow LIG
437 2 3 0.000000 -0.000000 24.990999 6.972000 # Hw LIG
438 3 3 0.000000 0.534000 23.455999 6.815000 # Hw LIG
439 1 5 0.000000 12.192000 24.052999 2.929000 # Ow LIG
440 2 3 0.000000 12.515000 24.983999 3.098000 # Hw LIG
441 3 3 0.000000 12.969000 23.424000 2.933000 # Hw LIG
442 1 5 0.000000 15.984000 11.779000 6.689000 # Ow LIG
443 2 3 0.000000 16.944000 11.754000 6.411000 # Hw LIG
444 3 3 0.000000 15.519000 10.959000 6.355000 # Hw LIG
445 1 5 0.000000 0.529000 23.528000 21.955000 # Ow LIG
446 2 3 0.000000 0.099000 24.141001 22.618000 # Hw LIG
447 3 3 0.000000 0.006000 22.677000 21.900000 # Hw LIG
448 1 5 0.000000 0.002000 26.865999 19.775999 # Ow LIG
449 2 3 0.000000 0.867000 26.448999 20.056000 # Hw LIG
450 3 3 0.000000 -0.004000 26.983999 18.783001 # Hw LIG
451 1 5 0.000000 11.011000 11.018000 17.614000 # Ow LIG
452 2 3 0.000000 10.142000 11.185000 18.080000 # Hw LIG
453 3 3 0.000000 11.516000 11.877000 17.533001 # Hw LIG
454 1 5 0.000000 23.743000 16.702999 22.011999 # Ow LIG
455 2 3 0.000000 24.601999 16.223000 21.836000 # Hw LIG
456 3 3 0.000000 23.284000 16.895000 21.145000 # Hw LIG
457 1 5 0.000000 0.934000 29.503000 0.352000 # Ow LIG
458 2 3 0.000000 -0.000000 29.445000 -0.000000 # Hw LIG
459 3 3 0.000000 0.932000 30.000000 1.220000 # Hw LIG
460 1 5 0.000000 13.820000 26.061001 8.120000 # Ow LIG
461 2 3 0.000000 13.786000 26.278000 7.145000 # Hw LIG
462 3 3 0.000000 12.940000 26.280001 8.541000 # Hw LIG
463 1 5 0.000000 15.013000 1.538000 10.207000 # Ow LIG
464 2 3 0.000000 14.643000 0.648000 10.474000 # Hw LIG
465 3 3 0.000000 14.265000 2.142000 9.932000 # Hw LIG
466 1 5 0.000000 26.827000 29.013000 6.811000 # Ow LIG
467 2 3 0.000000 26.653000 29.983000 6.984000 # Hw LIG
468 3 3 0.000000 27.334000 28.622999 7.580000 # Hw LIG
469 1 5 0.000000 22.841999 12.729000 29.082001 # Ow LIG
470 2 3 0.000000 23.681000 13.119000 28.702000 # Hw LIG
471 3 3 0.000000 22.980000 11.756000 29.264000 # Hw LIG
472 1 5 0.000000 20.462000 19.559999 10.701000 # Ow LIG
473 2 3 0.000000 19.542000 19.500000 10.315000 # Hw LIG
474 3 3 0.000000 21.058001 20.052999 10.067000 # Hw LIG
475 1 5 0.000000 12.478000 0.793000 13.763000 # Ow LIG
476 2 3 0.000000 12.490000 -0.001000 13.156000 # Hw LIG
477 3 3 0.000000 13.241000 0.732000 14.407000 # Hw LIG
478 1 5 0.000000 2.015000 29.725000 19.594999 # Ow LIG
479 2 3 0.000000 2.963000 30.007999 19.740999 # Hw LIG
480 3 3 0.000000 1.460000 30.002001 20.379999 # Hw LIG
481 1 5 0.000000 6.051000 4.630000 15.241000 # Ow LIG
482 2 3 0.000000 6.027000 3.630000 15.233000 # Hw LIG
483 3 3 0.000000 5.116000 4.985000 15.233000 # Hw LIG
484 1 5 0.000000 24.004999 9.533000 15.627000 # Ow LIG
485 2 3 0.000000 24.664000 10.130000 15.168000 # Hw LIG
486 3 3 0.000000 23.899000 8.689000 15.102000 # Hw LIG
487 1 5 0.000000 0.502000 3.313000 16.334000 # Ow LIG
488 2 3 0.000000 -0.008000 2.519000 16.003000 # Hw LIG
489 3 3 0.000000 -0.001000 3.744000 17.083000 # Hw LIG
490 1 5 0.000000 9.604000 20.024000 0.008000 # Ow LIG
491 2 3 0.000000 10.159000 19.191999 0.012000 # Hw LIG
492 3 3 0.000000 8.634000 19.777000 0.001000 # Hw LIG
493 1 5 0.000000 0.053000 11.118000 4.900000 # Ow LIG
494 2 3 0.000000 0.467000 10.239000 4.664000 # Hw LIG
495 3 3 0.000000 -0.000000 11.692000 4.083000 # Hw LIG
496 1 5 0.000000 12.273000 29.136999 29.999001 # Ow LIG
497 2 3 0.000000 12.779000 30.000000 29.999001 # Hw LIG
498 3 3 0.000000 11.291000 29.327000 30.000000 # Hw LIG
499 1 5 0.000000 4.919000 0.424000 3.700000 # Ow LIG
500 2 3 0.000000 5.278000 0.009000 2.864000 # Hw LIG
501 3 3 0.000000 4.682000 1.380000 3.521000 # Hw LIG
502 1 5 0.000000 29.917000 0.566000 16.539000 # Ow LIG
503 2 3 0.000000 30.000000 1.119000 15.710000 # Hw LIG
504 3 3 0.000000 29.096001 -0.002000 16.479000 # Hw LIG
505 1 5 0.000000 23.179001 21.051001 27.936001 # Ow LIG
506 2 3 0.000000 22.995001 21.938999 27.514000 # Hw LIG
507 3 3 0.000000 24.139999 20.809000 27.799000 # Hw LIG
508 1 5 0.000000 3.666000 16.874001 0.304000 # Ow LIG
509 2 3 0.000000 3.590000 16.240999 1.074000 # Hw LIG
510 3 3 0.000000 4.631000 17.013000 0.082000 # Hw LIG
511 1 5 0.000000 5.696000 14.433000 25.864000 # Ow LIG
512 2 3 0.000000 6.597000 14.722000 26.188999 # Hw LIG
513 3 3 0.000000 5.475000 14.921000 25.020000 # Hw LIG
514 1 5 0.000000 23.893999 8.091000 19.599001 # Ow LIG
515 2 3 0.000000 23.430000 8.971000 19.702000 # Hw LIG
516 3 3 0.000000 23.318001 7.471000 19.065001 # Hw LIG
517 1 5 0.000000 7.560000 29.606001 9.007000 # Ow LIG
518 2 3 0.000000 7.478000 30.000999 9.921000 # Hw LIG
519 3 3 0.000000 6.964000 28.806000 8.934000 # Hw LIG
520 1 5 0.000000 29.488001 22.853001 20.157000 # Ow LIG
521 2 3 0.000000 30.000999 21.995001 20.183001 # Hw LIG
522 3 3 0.000000 30.000999 23.533001 19.632999 # Hw LIG
523 1 5 0.000000 2.649000 17.504000 12.872000 # Ow LIG
524 2 3 0.000000 2.549000 17.870001 11.947000 # Hw LIG
525 3 3 0.000000 3.205000 18.129000 13.420000 # Hw LIG
526 1 5 0.000000 14.408000 25.709000 28.010000 # Ow LIG
527 2 3 0.000000 14.366000 25.909000 28.988001 # Hw LIG
528 3 3 0.000000 13.551000 25.987000 27.576000 # Hw LIG
529 1 5 0.000000 2.369000 13.725000 26.738001 # Ow LIG
530 2 3 0.000000 1.668000 13.096000 27.073999 # Hw LIG
531 3 3 0.000000 2.207000 13.918000 25.770000 # Hw LIG
532 1 5 0.000000 0.872000 25.031000 0.056000 # Ow LIG
533 2 3 0.000000 0.704000 26.017000 0.040000 # Hw LIG
534 3 3 0.000000 -0.000000 24.545000 0.117000 # Hw LIG
535 1 5 0.000000 12.385000 10.849000 27.105000 # Ow LIG
536 2 3 0.000000 12.988000 10.942000 26.313000 # Hw LIG