created by fftool

6000 atoms
4000 bonds
2000 angles
5 atom types
3 bond types
2 angle types
0.000000 43.625768 xlo xhi
0.000000 43.625768 ylo yhi
0.000000 43.625768 zlo zhi

Masses

   1   15.999  # Ow
   2    1.008  # Hw
   3   15.035  # C3
   4   15.999  # O
   5    1.008  # H


Atoms

      1       1    1  -0.847600  2.800541e+01  4.626964e+00  3.882724e+01  # Ow water
      2       1    2   0.423800  2.766651e+01  5.396687e+00  3.921815e+01  # Hw water
      3       1    2   0.423800  2.866076e+01  4.856442e+00  3.821243e+01  # Hw water
      4       2    1  -0.847600  1.446346e+01  8.217632e+00  3.012965e+01  # Ow water
      5       2    2   0.423800  1.403510e+01  7.478173e+00  3.049000e+01  # Hw water
      6       2    2   0.423800  1.408344e+01  8.991196e+00  3.047218e+01  # Hw water
      7       3    1  -0.847600  1.329626e+01  5.908353e+00  4.213175e+01  # Ow water
      8       3    2   0.423800  1.351382e+01  6.806301e+00  4.205116e+01  # Hw water
      9       3    2   0.423800  1.312290e+01  5.556632e+00  4.129128e+01  # Hw water
     10       4    1  -0.847600  1.725254e+00  8.720188e+00  6.361802e+00  # Ow water
     11       4    2   0.423800  1.498687e+00  8.705337e+00  7.261017e+00  # Hw water
     12       4    2   0.423800  1.629585e+00  7.869157e+00  6.005803e+00  # Hw water
     13       5    1  -0.847600  4.212611e+01  1.170557e+01  4.058049e+01  # Ow water
     14       5    2   0.423800  4.189764e+01  1.095444e+01  4.008678e+01  # Hw water
     15       5    2   0.423800  4.175941e+01  1.245895e+01  4.018288e+01  # Hw water
     16       6    1  -0.847600  4.014016e+00  1.551249e+01  6.438196e+00  # Ow water
     17       6    2   0.423800  4.328877e+00  1.604654e+01  7.127969e+00  # Hw water
     18       6    2   0.423800  3.733595e+00  1.604957e+01  5.736020e+00  # Hw water
     19       7    1  -0.847600  3.380425e+00  4.199298e+01  1.211555e+01  # Ow water
     20       7    2   0.423800  2.725017e+00  4.212582e+01  1.275815e+01  # Hw water
     21       7    2   0.423800  4.152488e+00  4.167983e+01  1.252297e+01  # Hw water
     22       8    1  -0.847600  1.845022e+01  5.605946e+00  3.835918e+01  # Ow water
     23       8    2   0.423800  1.853817e+01  4.783316e+00  3.794004e+01  # Hw water
     24       8    2   0.423800  1.922394e+01  5.793755e+00  3.883481e+01  # Hw water
     25       9    1  -0.847600  3.959848e+01  1.801414e+01  3.433831e+01  # Ow water
     26       9    2   0.423800  3.982653e+01  1.879450e+01  3.478460e+01  # Hw water
     27       9    2   0.423800  3.911013e+01  1.746631e+01  3.490536e+01  # Hw water
     28      10    1  -0.847600  2.608042e+01  3.354983e+01  2.083023e+01  # Ow water
     29      10    2   0.423800  2.605185e+01  3.442528e+01  2.052540e+01  # Hw water
     30      10    2   0.423800  2.655201e+01  3.302820e+01  2.022554e+01  # Hw water
     31      11    1  -0.847600  4.136785e+01  1.787529e+01  2.384981e+00  # Ow water
     32      11    2   0.423800  4.212583e+01  1.765789e+01  2.873179e+00  # Hw water
     33      11    2   0.423800  4.072173e+01  1.821793e+01  2.955306e+00  # Hw water
     34      12    1  -0.847600  1.189647e+01  1.682999e+01  4.212935e+01  # Ow water
     35      12    2   0.423800  1.126442e+01  1.681010e+01  4.145093e+01  # Hw water
     36      12    2   0.423800  1.248074e+01  1.753576e+01  4.198561e+01  # Hw water
     37      13    1  -0.847600  1.575117e+01  4.110818e+01  2.941262e+01  # Ow water
     38      13    2   0.423800  1.512001e+01  4.128187e+01  3.006960e+01  # Hw water
     39      13    2   0.423800  1.631270e+01  4.042709e+01  2.969712e+01  # Hw water
     40      14    1  -0.847600  7.068976e+00  3.523569e+01  3.304390e+01  # Ow water
     41      14    2   0.423800  7.622587e+00  3.465987e+01  3.351517e+01  # Hw water
     42      14    2   0.423800  7.500017e+00  3.604801e+01  3.292362e+01  # Hw water
     43      15    1  -0.847600  3.385053e+01  3.219418e+01  2.281967e+01  # Ow water
     44      15    2   0.423800  3.411376e+01  3.285952e+01  2.222961e+01  # Hw water
     45      15    2   0.423800  3.396593e+01  3.136501e+01  2.242054e+01  # Hw water
     46      16    1  -0.847600  4.089423e+01  1.238325e+01  2.655030e+01  # Ow water
     47      16    2   0.423800  4.166186e+01  1.191994e+01  2.678742e+01  # Hw water
     48      16    2   0.423800  4.112532e+01  1.323074e+01  2.625280e+01  # Hw water
     49      17    1  -0.847600  1.596619e+01  4.563785e+00  7.619135e+00  # Ow water
     50      17    2   0.423800  1.613777e+01  4.244735e+00  6.765373e+00  # Hw water
     51      17    2   0.423800  1.634370e+01  3.991423e+00  8.243655e+00  # Hw water
     52      18    1  -0.847600  3.630962e+01  2.995497e+01  1.749124e+01  # Ow water
     53      18    2   0.423800  3.599475e+01  2.991334e+01  1.661988e+01  # Hw water
     54      18    2   0.423800  3.614899e+01  2.914627e+01  1.791591e+01  # Hw water
     55      19    1  -0.847600  2.370952e+01  2.843777e+01  1.465657e+01  # Ow water
     56      19    2   0.423800  2.446499e+01  2.794553e+01  1.487359e+01  # Hw water
     57      19    2   0.423800  2.295271e+01  2.797945e+01  1.493463e+01  # Hw water
     58      20    1  -0.847600  2.535559e+01  3.669426e+01  2.191391e+01  # Ow water
     59      20    2   0.423800  2.626942e+01  3.685255e+01  2.191311e+01  # Hw water
     60      20    2   0.423800  2.491966e+01  3.740331e+01  2.150482e+01  # Hw water
     61      21    1  -0.847600  2.862879e+01  1.666048e+00  2.659340e+01  # Ow water
     62      21    2   0.423800  2.954116e+01  1.500008e+00  2.658142e+01  # Hw water
     63      21    2   0.423800  2.827716e+01  1.516172e+00  2.574839e+01  # Hw water
     64      22    1  -0.847600  3.141229e+01  3.019385e+01  2.897733e+01  # Ow water
     65      22    2   0.423800  3.091378e+01  3.082631e+01  2.851731e+01  # Hw water
     66      22    2   0.423800  3.174333e+01  2.956752e+01  2.837878e+01  # Hw water
     67      23    1  -0.847600  3.531589e+01  2.931583e+01  2.452326e+01  # Ow water
     68      23    2   0.423800  3.565680e+01  3.017807e+01  2.454494e+01  # Hw water
     69      23    2   0.423800  3.442982e+01  2.934156e+01  2.425057e+01  # Hw water
     70      24    1  -0.847600  1.616754e+01  4.170981e+01  3.262591e+01  # Ow water
     71      24    2   0.423800  1.660005e+01  4.210090e+01  3.334711e+01  # Hw water
     72      24    2   0.423800  1.525393e+01  4.169624e+01  3.278488e+01  # Hw water
     73      25    1  -0.847600  2.898442e+01  3.886081e+01  1.516106e+01  # Ow water
     74      25    2   0.423800  2.886816e+01  3.902608e+01  1.425591e+01  # Hw water
     75      25    2   0.423800  2.879413e+01  3.963073e+01  1.564184e+01  # Hw water
     76      26    1  -0.847600  2.797802e+01  1.685844e+01  7.623297e+00  # Ow water
     77      26    2   0.423800  2.727940e+01  1.658956e+01  7.075785e+00  # Hw water
     78      26    2   0.423800  2.872721e+01  1.703104e+01  7.104583e+00  # Hw water
     79      27    1  -0.847600  7.849040e+00  3.277342e+01  2.643058e+01  # Ow water
     80      27    2   0.423800  8.456913e+00  3.266711e+01  2.573825e+01  # Hw water
     81      27    2   0.423800  7.066397e+00  3.231987e+01  2.622587e+01  # Hw water
     82      28    1  -0.847600  5.182377e+00  2.824886e+01  2.814442e+01  # Ow water
     83      28    2   0.423800  4.692815e+00  2.851481e+01  2.740298e+01  # Hw water
     84      28    2   0.423800  5.916746e+00  2.775461e+01  2.786772e+01  # Hw water
     85      29    1  -0.847600  1.218171e+01  3.077073e+01  2.898190e+01  # Ow water
     86      29    2   0.423800  1.151438e+01  3.037625e+01  2.847279e+01  # Hw water
     87      29    2   0.423800  1.257657e+01  3.145474e+01  2.849572e+01  # Hw water
     88      30    1  -0.847600  4.039761e+01  2.875794e+01  3.596471e+01  # Ow water
     89      30    2   0.423800  4.095138e+01  2.909773e+01  3.662654e+01  # Hw water
     90      30    2   0.423800  3.967540e+01  2.832869e+01  3.635754e+01  # Hw water
     91      31    1  -0.847600  4.128120e+01  2.299983e+01  1.992907e+01  # Ow water
     92      31    2   0.423800  4.064016e+01  2.303717e+01  1.925988e+01  # Hw water
     93      31    2   0.423800  4.212631e+01  2.303083e+01  1.954833e+01  # Hw water
     94      32    1  -0.847600  3.597965e+01  5.128684e+00  1.856577e+01  # Ow water
     95      32    2   0.423800  3.643754e+01  5.050289e+00  1.936847e+01  # Hw water
     96      32    2   0.423800  3.534076e+01  4.458828e+00  1.850874e+01  # Hw water
     97      33    1  -0.847600  1.165940e+01  3.016484e+01  7.459675e+00  # Ow water
     98      33    2   0.423800  1.234920e+01  3.006575e+01  6.847724e+00  # Hw water
     99      33    2   0.423800  1.181271e+01  2.961275e+01  8.188937e+00  # Hw water
    100      34    1  -0.847600  2.350779e+01  6.151705e+00  1.760693e+01  # Ow water
    101      34    2   0.423800  2.258176e+01  6.201121e+00  1.762002e+01  # Hw water
    102      34    2   0.423800  2.384679e+01  6.853821e+00  1.710468e+01  # Hw water
    103      35    1  -0.847600  2.373865e+01  1.026019e+01  1.835727e+01  # Ow water
    104      35    2   0.423800  2.401659e+01  9.425767e+00  1.806294e+01  # Hw water
    105      35    2   0.423800  2.337459e+01  1.018184e+01  1.920666e+01  # Hw water
    106      36    1  -0.847600  4.147468e+00  4.150451e+01  1.789055e+01  # Ow water
    107      36    2   0.423800  3.941173e+00  4.119305e+01  1.873941e+01  # Hw water
    108      36    2   0.423800  4.961135e+00  4.194893e+01  1.791466e+01  # Hw water
    109      37    1  -0.847600  3.940695e+01  5.308684e+00  3.584022e+01  # Ow water
    110      37    2   0.423800  3.952409e+01  6.228026e+00  3.587528e+01  # Hw water
    111      37    2   0.423800  3.970201e+01  4.929949e+00  3.663372e+01  # Hw water
    112      38    1  -0.847600  3.797117e+01  2.555219e+01  8.586392e+00  # Ow water
    113      38    2   0.423800  3.711561e+01  2.550102e+01  8.232084e+00  # Hw water
    114      38    2   0.423800  3.859308e+01  2.544456e+01  7.906843e+00  # Hw water
    115      39    1  -0.847600  2.052051e+01  4.967041e+00  1.266014e+01  # Ow water
    116      39    2   0.423800  2.089806e+01  5.495814e+00  1.199833e+01  # Hw water
    117      39    2   0.423800  2.015636e+01  4.205559e+00  1.227585e+01  # Hw water
    118      40    1  -0.847600  1.408202e+01  2.546091e+01  3.966189e+01  # Ow water
    119      40    2   0.423800  1.461186e+01  2.576116e+01  3.896242e+01  # Hw water
    120      40    2   0.423800  1.338784e+01  2.494699e+01  3.932406e+01  # Hw water
    121      41    1  -0.847600  3.216231e+01  1.132556e+01  1.785502e+00  # Ow water
    122      41    2   0.423800  3.257516e+01  1.131857e+01  2.615954e+00  # Hw water
    123      41    2   0.423800  3.129708e+01  1.164750e+01  1.874191e+00  # Hw water
    124      42    1  -0.847600  2.196454e+01  2.397109e+00  3.468395e+01  # Ow water
    125      42    2   0.423800  2.124746e+01  2.888708e+00  3.500685e+01  # Hw water
    126      42    2   0.423800  2.165702e+01  1.763522e+00  3.408051e+01  # Hw water
    127      43    1  -0.847600  2.206231e+01  3.790442e+01  5.953996e+00  # Ow water
    128      43    2   0.423800  2.129269e+01  3.745130e+01  6.204025e+00  # Hw water
    129      43    2   0.423800  2.279740e+01  3.751051e+01  6.359736e+00  # Hw water
    130      44    1  -0.847600  1.658036e+01  1.147345e+01  4.011207e+01  # Ow water
    131      44    2   0.423800  1.607262e+01  1.121158e+01  4.084267e+01  # Hw water
    132      44    2   0.423800  1.652647e+01  1.082515e+01  3.945106e+01  # Hw water
    133      45    1  -0.847600  2.184856e+01  1.764710e+01  4.209173e+01  # Ow water
    134      45    2   0.423800  2.202995e+01  1.674542e+01  4.197250e+01  # Hw water
    135      45    2   0.423800  2.264606e+01  1.811791e+01  4.214155e+01  # Hw water
    136      46    1  -0.847600  9.774722e+00  2.246148e+01  1.162118e+01  # Ow water
    137      46    2   0.423800  1.018277e+01  2.175687e+01  1.206521e+01  # Hw water
    138      46    2   0.423800  1.040566e+01  2.291137e+01  1.111162e+01  # Hw water
    139      47    1  -0.847600  3.218724e+01  1.772186e+01  1.203705e+01  # Ow water
    140      47    2   0.423800  3.233084e+01  1.855297e+01  1.242277e+01  # Hw water
    141      47    2   0.423800  3.278735e+01  1.710988e+01  1.239130e+01  # Hw water
    142      48    1  -0.847600  2.500391e+01  1.564432e+01  4.213781e+01  # Ow water
    143      48    2   0.423800  2.565263e+01  1.601808e+01  4.159044e+01  # Hw water
    144      48    2   0.423800  2.433010e+01  1.528170e+01  4.161376e+01  # Hw water
    145      49    1  -0.847600  4.160113e+01  3.087286e+01  1.411664e+01  # Ow water
    146      49    2   0.423800  4.106538e+01  3.122651e+01  1.344728e+01  # Hw water
    147      49    2   0.423800  4.212629e+01  3.019425e+01  1.376475e+01  # Hw water
    148      50    1  -0.847600  5.177420e+00  2.394056e+00  1.455735e+01  # Ow water
    149      50    2   0.423800  5.230673e+00  2.589878e+00  1.546232e+01  # Hw water
    150      50    2   0.423800  4.929176e+00  1.507169e+00  1.444805e+01  # Hw water
    151      51    1  -0.847600  4.511804e+00  3.292432e+01  2.065342e+01  # Ow water
    152      51    2   0.423800  4.721634e+00  3.305485e+01  1.975952e+01  # Hw water
    153      51    2   0.423800  4.991504e+00  3.220092e+01  2.098012e+01  # Hw water
    154      52    1  -0.847600  2.927105e+00  9.937741e+00  1.462617e+01  # Ow water
    155      52    2   0.423800  3.303994e+00  1.075074e+01  1.438714e+01  # Hw water
    156      52    2   0.423800  3.528321e+00  9.254737e+00  1.444676e+01  # Hw water
    157      53    1  -0.847600  2.231318e+01  4.038567e+01  2.978979e+01  # Ow water
    158      53    2   0.423800  2.306645e+01  3.994689e+01  3.010633e+01  # Hw water
    159      53    2   0.423800  2.206925e+01  4.105039e+01  3.038879e+01  # Hw water
    160      54    1  -0.847600  3.245748e+01  2.201092e+01  2.963415e+01  # Ow water
    161      54    2   0.423800  3.168811e+01  2.231138e+01  2.921231e+01  # Hw water
    162      54    2   0.423800  3.284174e+01  2.270928e+01  3.010825e+01  # Hw water
    163      55    1  -0.847600  3.438956e+01  2.025992e+01  4.158884e+01  # Ow water
    164      55    2   0.423800  3.428818e+01  1.950734e+01  4.212127e+01  # Hw water
    165      55    2   0.423800  3.448292e+01  2.100865e+01  4.212814e+01  # Hw water
    166      56    1  -0.847600  2.614924e+00  5.364909e+00  1.850898e+00  # Ow water
    167      56    2   0.423800  2.829789e+00  4.524618e+00  1.522442e+00  # Hw water
    168      56    2   0.423800  3.200299e+00  5.992290e+00  1.498946e+00  # Hw water
    169      57    1  -0.847600  3.774408e+01  4.203627e+01  2.867923e+01  # Ow water
    170      57    2   0.423800  3.865557e+01  4.212595e+01  2.882512e+01  # Hw water
    171      57    2   0.423800  3.755708e+01  4.116430e+01  2.842459e+01  # Hw water
    172      58    1  -0.847600  1.588639e+01  2.014099e+00  3.516550e+01  # Ow water
    173      58    2   0.423800  1.540404e+01  2.804415e+00  3.521918e+01  # Hw water
    174      58    2   0.423800  1.660603e+01  2.052029e+00  3.574929e+01  # Hw water
    175      59    1  -0.847600  2.144574e+01  2.681865e+01  3.954633e+01  # Ow water
    176      59    2   0.423800  2.087324e+01  2.730603e+01  3.900332e+01  # Hw water
    177      59    2   0.423800  2.205425e+01  2.739287e+01  3.994649e+01  # Hw water
    178      60    1  -0.847600  3.561035e+01  1.671484e+00  2.021690e+01  # Ow water
    179      60    2   0.423800  3.534527e+01  1.499908e+00  1.934487e+01  # Hw water
    180      60    2   0.423800  3.609555e+01  2.461494e+00  2.024171e+01  # Hw water
    181      61    1  -0.847600  2.548256e+01  3.831707e+01  3.189699e+01  # Ow water
    182      61    2   0.423800  2.575651e+01  3.743158e+01  3.192862e+01  # Hw water
    183      61    2   0.423800  2.523706e+01  3.853288e+01  3.102906e+01  # Hw water
    184      62    1  -0.847600  3.101918e+01  2.104717e+01  3.282337e+01  # Ow water
    185      62    2   0.423800  3.156595e+01  2.140114e+01  3.216316e+01  # Hw water
    186      62    2   0.423800  3.116011e+01  2.013242e+01  3.288255e+01  # Hw water
    187      63    1  -0.847600  1.975241e+01  3.293850e+01  3.533900e+01  # Ow water
    188      63    2   0.423800  1.949818e+01  3.267294e+01  3.619046e+01  # Hw water
    189      63    2   0.423800  2.047285e+01  3.351939e+01  3.539961e+01  # Hw water
    190      64    1  -0.847600  3.512571e+01  4.109602e+01  3.244636e+01  # Ow water
    191      64    2   0.423800  3.565606e+01  4.050145e+01  3.197164e+01  # Hw water
    192      64    2   0.423800  3.479800e+01  4.067757e+01  3.320639e+01  # Hw water
    193      65    1  -0.847600  3.342538e+01  3.102477e+01  1.111722e+01  # Ow water
    194      65    2   0.423800  3.337636e+01  3.058975e+01  1.029960e+01  # Hw water
    195      65    2   0.423800  3.388574e+01  3.049327e+01  1.172197e+01  # Hw water
    196      66    1  -0.847600  6.772517e+00  2.129447e+00  5.425248e+00  # Ow water
    197      66    2   0.423800  7.592992e+00  1.702667e+00  5.494672e+00  # Hw water
    198      66    2   0.423800  6.092920e+00  1.499964e+00  5.470418e+00  # Hw water
    199      67    1  -0.847600  9.361130e+00  1.092283e+01  3.529418e+01  # Ow water
    200      67    2   0.423800  8.874085e+00  1.024984e+01  3.488185e+01  # Hw water
    201      67    2   0.423800  9.341257e+00  1.168523e+01  3.476645e+01  # Hw water
    202      68    1  -0.847600  1.594080e+01  1.428571e+01  4.209336e+01  # Ow water
    203      68    2   0.423800  1.509858e+01  1.389737e+01  4.209402e+01  # Hw water
    204      68    2   0.423800  1.647021e+01  1.387243e+01  4.145379e+01  # Hw water
    205      69    1  -0.847600  1.276688e+01  3.556899e+01  2.235469e+01  # Ow water
    206      69    2   0.423800  1.284684e+01  3.507715e+01  2.313689e+01  # Hw water
    207      69    2   0.423800  1.247251e+01  3.642477e+01  2.255751e+01  # Hw water
    208      70    1  -0.847600  3.556029e+01  3.464724e+01  1.035024e+01  # Ow water
    209      70    2   0.423800  3.633890e+01  3.442781e+01  9.896631e+00  # Hw water
    210      70    2   0.423800  3.490832e+01  3.489773e+01  9.740058e+00  # Hw water
    211      71    1  -0.847600  2.000023e+01  4.178690e+01  4.211433e+01  # Ow water
    212      71    2   0.423800  2.052102e+01  4.104078e+01  4.193482e+01  # Hw water
    213      71    2   0.423800  1.944727e+01  4.195831e+01  4.138976e+01  # Hw water
    214      72    1  -0.847600  5.868332e+00  2.176125e+01  3.791938e+01  # Ow water
    215      72    2   0.423800  5.701517e+00  2.108753e+01  3.730423e+01  # Hw water
    216      72    2   0.423800  6.279442e+00  2.140001e+01  3.866814e+01  # Hw water
    217      73    1  -0.847600  4.212654e+01  1.388664e+01  3.422235e+01  # Ow water
    218      73    2   0.423800  4.190260e+01  1.344709e+01  3.500771e+01  # Hw water
    219      73    2   0.423800  4.166043e+01  1.350981e+01  3.351462e+01  # Hw water
    220      74    1  -0.847600  6.612012e+00  2.729581e+00  3.534200e+01  # Ow water
    221      74    2   0.423800  5.976705e+00  2.376016e+00  3.591777e+01  # Hw water
    222      74    2   0.423800  6.980920e+00  3.491619e+00  3.572061e+01  # Hw water
    223      75    1  -0.847600  7.361017e+00  3.514114e+01  2.022673e+01  # Ow water
    224      75    2   0.423800  6.597857e+00  3.564590e+01  2.037821e+01  # Hw water
    225      75    2   0.423800  7.148961e+00  3.423960e+01  2.027572e+01  # Hw water
    226      76    1  -0.847600  3.798681e+01  4.077710e+01  3.691300e+01  # Ow water
    227      76    2   0.423800  3.796559e+01  4.163855e+01  3.725593e+01  # Hw water
    228      76    2   0.423800  3.882035e+01  4.040270e+01  3.707165e+01  # Hw water
    229      77    1  -0.847600  4.142060e+01  2.492088e+01  4.147102e+01  # Ow water
    230      77    2   0.423800  4.199813e+01  2.563166e+01  4.132482e+01  # Hw water
    231      77    2   0.423800  4.191038e+01  2.416908e+01  4.170565e+01  # Hw water
    232      78    1  -0.847600  3.061542e+01  2.064921e+01  8.851885e+00  # Ow water
    233      78    2   0.423800  3.050518e+01  1.991370e+01  9.405962e+00  # Hw water
    234      78    2   0.423800  3.079094e+01  2.036078e+01  7.988094e+00  # Hw water
    235      79    1  -0.847600  1.210916e+01  3.792469e+01  3.576162e+01  # Ow water
    236      79    2   0.423800  1.147473e+01  3.745503e+01  3.624850e+01  # Hw water
    237      79    2   0.423800  1.269651e+01  3.834384e+01  3.634427e+01  # Hw water
    238      80    1  -0.847600  3.126575e+01  3.284454e+01  3.990960e+01  # Ow water
    239      80    2   0.423800  3.197426e+01  3.231883e+01  3.962364e+01  # Hw water
    240      80    2   0.423800  3.141184e+01  3.372405e+01  3.965412e+01  # Hw water
    241      81    1  -0.847600  1.137126e+01  3.696270e+01  2.567583e+01  # Ow water
    242      81    2   0.423800  1.200311e+01  3.733652e+01  2.510912e+01  # Hw water
    243      81    2   0.423800  1.149527e+01  3.729036e+01  2.653455e+01  # Hw water
    244      82    1  -0.847600  3.944976e+01  2.112790e+01  8.147354e+00  # Ow water
    245      82    2   0.423800  3.967475e+01  2.186573e+01  7.632448e+00  # Hw water
    246      82    2   0.423800  3.942418e+01  2.037289e+01  7.609351e+00  # Hw water
    247      83    1  -0.847600  2.259095e+01  4.083509e+01  1.485063e+00  # Ow water
    248      83    2   0.423800  2.202592e+01  4.099112e+01  2.203766e+00  # Hw water
    249      83    2   0.423800  2.344574e+01  4.065746e+01  1.797981e+00  # Hw water
    250      84    1  -0.847600  2.522002e+00  3.328711e+01  2.468753e+01  # Ow water
    251      84    2   0.423800  2.534736e+00  3.305310e+01  2.379019e+01  # Hw water
    252      84    2   0.423800  3.335337e+00  3.366850e+01  2.491812e+01  # Hw water
    253      85    1  -0.847600  1.132341e+01  3.838777e+01  3.971556e+01  # Ow water
    254      85    2   0.423800  1.108916e+01  3.835334e+01  3.881886e+01  # Hw water
    255      85    2   0.423800  1.200474e+01  3.778030e+01  3.987964e+01  # Hw water
    256      86    1  -0.847600  2.345833e+01  3.551183e+00  1.476482e+00  # Ow water
    257      86    2   0.423800  2.315832e+01  4.394375e+00  1.719704e+00  # Hw water
    258      86    2   0.423800  2.438356e+01  3.524643e+00  1.534688e+00  # Hw water
    259      87    1  -0.847600  3.910351e+01  1.398086e+01  3.441035e+01  # Ow water
    260      87    2   0.423800  3.948963e+01  1.474646e+01  3.476376e+01  # Hw water
    261      87    2   0.423800  3.887671e+01  1.340362e+01  3.509991e+01  # Hw water
    262      88    1  -0.847600  3.943821e+01  1.986942e+00  6.235334e+00  # Ow water
    263      88    2   0.423800  3.950109e+01  2.868346e+00  5.953708e+00  # Hw water
    264      88    2   0.423800  3.896222e+01  1.496356e+00  5.608512e+00  # Hw water
    265      89    1  -0.847600  1.321912e+01  2.062362e+01  3.226347e+01  # Ow water
    266      89    2   0.423800  1.264412e+01  2.129244e+01  3.255020e+01  # Hw water
    267      89    2   0.423800  1.409413e+01  2.092679e+01  3.231427e+01  # Hw water
    268      90    1  -0.847600  2.492550e+01  1.488214e+01  3.387143e+01  # Ow water
    269      90    2   0.423800  2.500093e+01  1.414958e+01  3.443517e+01  # Hw water
    270      90    2   0.423800  2.540022e+01  1.472076e+01  3.309122e+01  # Hw water
    271      91    1  -0.847600  2.824740e+01  1.906649e+00  3.915313e+01  # Ow water
    272      91    2   0.423800  2.761060e+01  1.499458e+00  3.861571e+01  # Hw water
    273      91    2   0.423800  2.906979e+01  1.499439e+00  3.901900e+01  # Hw water
    274      92    1  -0.847600  2.775513e+00  2.679846e+01  4.518201e+00  # Ow water
    275      92    2   0.423800  2.335693e+00  2.734150e+01  3.908439e+00  # Hw water
    276      92    2   0.423800  3.677380e+00  2.676302e+01  4.304845e+00  # Hw water
    277      93    1  -0.847600  3.899885e+01  4.122205e+01  1.344289e+01  # Ow water
    278      93    2   0.423800  3.913854e+01  4.075832e+01  1.265195e+01  # Hw water
    279      93    2   0.423800  3.899496e+01  4.213311e+01  1.326940e+01  # Hw water
    280      94    1  -0.847600  3.167199e+01  3.027375e+01  2.347568e+01  # Ow water
    281      94    2   0.423800  3.074459e+01  3.026551e+01  2.347436e+01  # Hw water
    282      94    2   0.423800  3.197493e+01  3.074555e+01  2.421444e+01  # Hw water
    283      95    1  -0.847600  8.934616e+00  1.773779e+01  3.960841e+01  # Ow water
    284      95    2   0.423800  9.185777e+00  1.799660e+01  3.875396e+01  # Hw water
    285      95    2   0.423800  8.292986e+00  1.707049e+01  3.955216e+01  # Hw water
    286      96    1  -0.847600  1.472995e+01  2.615100e+01  2.016115e+01  # Ow water
    287      96    2   0.423800  1.538734e+01  2.564854e+01  2.058009e+01  # Hw water
    288      96    2   0.423800  1.452241e+01  2.688645e+01  2.068668e+01  # Hw water
    289      97    1  -0.847600  3.774942e+01  5.706933e+00  7.360878e+00  # Ow water
    290      97    2   0.423800  3.716509e+01  6.405358e+00  7.185075e+00  # Hw water
    291      97    2   0.423800  3.851401e+01  6.039606e+00  7.766922e+00  # Hw water
    292      98    1  -0.847600  2.274833e+01  2.017236e+01  3.033313e+01  # Ow water
    293      98    2   0.423800  2.325677e+01  1.960836e+01  2.980067e+01  # Hw water
    294      98    2   0.423800  2.309389e+01  2.103191e+01  3.028942e+01  # Hw water
    295      99    1  -0.847600  7.003360e+00  8.696715e+00  2.190488e+00  # Ow water
    296      99    2   0.423800  7.863452e+00  8.358828e+00  2.111657e+00  # Hw water
    297      99    2   0.423800  6.898456e+00  9.411290e+00  1.608665e+00  # Hw water
    298     100    1  -0.847600  4.008753e+01  2.034942e+01  1.908145e+01  # Ow water
    299     100    2   0.423800  3.995069e+01  2.057952e+01  1.819350e+01  # Hw water
    300     100    2   0.423800  4.096539e+01  2.007322e+01  1.919647e+01  # Hw water
    301     101    1  -0.847600  2.364426e+01  4.209866e+01  4.131411e+00  # Ow water
    302     101    2   0.423800  2.287830e+01  4.213045e+01  4.653355e+00  # Hw water
    303     101    2   0.423800  2.439196e+01  4.213866e+01  4.678663e+00  # Hw water
    304     102    1  -0.847600  1.637887e+01  2.060494e+01  3.795085e+01  # Ow water
    305     102    2   0.423800  1.549185e+01  2.037657e+01  3.809641e+01  # Hw water
    306     102    2   0.423800  1.641930e+01  2.133930e+01  3.738586e+01  # Hw water
    307     103    1  -0.847600  4.135647e+01  2.777679e+01  7.341801e+00  # Ow water
    308     103    2   0.423800  4.194192e+01  2.744037e+01  6.706016e+00  # Hw water
    309     103    2   0.423800  4.070951e+01  2.829249e+01  6.922721e+00  # Hw water
    310     104    1  -0.847600  2.020176e+00  2.856715e+01  4.040841e+01  # Ow water
    311     104    2   0.423800  1.497147e+00  2.933018e+01  4.034232e+01  # Hw water
    312     104    2   0.423800  1.798852e+00  2.810798e+01  4.118321e+01  # Hw water
    313     105    1  -0.847600  3.082340e+01  1.571061e+01  4.067957e+01  # Ow water
    314     105    2   0.423800  3.123174e+01  1.511875e+01  4.009383e+01  # Hw water
    315     105    2   0.423800  3.104118e+01  1.548100e+01  4.155134e+01  # Hw water
    316     106    1  -0.847600  1.673194e+01  4.743084e+00  1.315359e+01  # Ow water
    317     106    2   0.423800  1.602977e+01  4.583833e+00  1.256900e+01  # Hw water
    318     106    2   0.423800  1.745037e+01  4.202148e+00  1.292692e+01  # Hw water
    319     107    1  -0.847600  4.146556e+01  1.488669e+01  4.159035e+01  # Ow water
    320     107    2   0.423800  4.088573e+01  1.537329e+01  4.212623e+01  # Hw water
    321     107    2   0.423800  4.204539e+01  1.440010e+01  4.212624e+01  # Hw water
    322     108    1  -0.847600  2.889607e+01  3.599986e+01  1.811727e+00  # Ow water
    323     108    2   0.423800  2.959590e+01  3.660748e+01  1.846142e+00  # Hw water
    324     108    2   0.423800  2.842707e+01  3.602436e+01  2.611464e+00  # Hw water
    325     109    1  -0.847600  1.772502e+01  2.151123e+01  9.276778e+00  # Ow water
    326     109    2   0.423800  1.833719e+01  2.180647e+01  8.645731e+00  # Hw water
    327     109    2   0.423800  1.755673e+01  2.060887e+01  9.144249e+00  # Hw water
    328     110    1  -0.847600  2.196137e+01  2.669905e+01  3.173936e+01  # Ow water
    329     110    2   0.423800  2.125834e+01  2.723969e+01  3.201067e+01  # Hw water
    330     110    2   0.423800  2.269392e+01  2.684745e+01  3.228844e+01  # Hw water
    331     111    1  -0.847600  1.685622e+01  4.146817e+01  2.627608e+01  # Ow water
    332     111    2   0.423800  1.659496e+01  4.212502e+01  2.567572e+01  # Hw water
    333     111    2   0.423800  1.693999e+01  4.065911e+01  2.583050e+01  # Hw water
    334     112    1  -0.847600  3.579623e+00  7.448758e+00  1.753547e+01  # Ow water
    335     112    2   0.423800  2.878736e+00  7.546337e+00  1.813495e+01  # Hw water
    336     112    2   0.423800  4.049519e+00  8.246296e+00  1.747828e+01  # Hw water
    337     113    1  -0.847600  4.335992e+00  3.536091e+01  2.191605e+01  # Ow water
    338     113    2   0.423800  4.209858e+00  3.623907e+01  2.164574e+01  # Hw water
    339     113    2   0.423800  4.033138e+00  3.525999e+01  2.278682e+01  # Hw water
    340     114    1  -0.847600  1.380934e+01  3.594252e+01  6.390864e+00  # Ow water
    341     114    2   0.423800  1.366740e+01  3.549047e+01  5.593588e+00  # Hw water
    342     114    2   0.423800  1.325057e+01  3.668171e+01  6.429708e+00  # Hw water
    343     115    1  -0.847600  3.823873e+01  6.329356e+00  1.263342e+01  # Ow water
    344     115    2   0.423800  3.881376e+01  6.157788e+00  1.192629e+01  # Hw water
    345     115    2   0.423800  3.757940e+01  6.920598e+00  1.235799e+01  # Hw water